|===============================================================================
|
|  DFTB+ release 21.2
|
|  Copyright (C) 2006 - 2021  DFTB+ developers group
|
|===============================================================================
|
|  When publishing results obtained with DFTB+, please cite the following
|  reference:
|
|  * DFTB+, a software package for efficient approximate density functional
|    theory based atomistic simulations, J. Chem. Phys. 152, 124101 (2020).
|    [doi: 10.1063/1.5143190]
|
|  You should also cite additional publications crediting the parametrization
|  data you use. Please consult the documentation of the SK-files for the
|  references.
|
|===============================================================================

Reading input file 'dftb_in.hsd'
Parser version: 10

--------------------------------------------------------------------------------
Reading SK-files:
/home/roberto/slako/matsci/matsci-0-3/P-P.skf
Done.
WARNING!
-> This driver is deprecated and will be removed in future versions.
Please use the GeometryOptimization driver instead.
Path: dftbplusinput/Driver/ConjugateGradient
Line: 5-8 (File: dftb_in.hsd)



Processed input in HSD format written to 'dftb_pin.hsd'

Starting initialization...
--------------------------------------------------------------------------------
OpenMP threads:              4
Chosen random seed:          35244070
Mode:                        Conjugate gradient relaxation
Self consistent charges:     No
Spin polarisation:           No
Nr. of up electrons:            20.000000
Nr. of down electrons:          20.000000
Periodic boundaries:         Yes
Electronic solver:           Relatively robust
Nr. of moved atoms:                       8
Max. nr. of geometry steps:            1000
Force tolerance:               0.100000E-03
Electronic temperature:        0.100000E-07 H      0.272114E-06 eV
Included shells:             P:  s, p
K-points and weights:           1:  0.000000  0.250000  0.000000     0.028571
                                2:  0.000000  0.250000  0.200000     0.028571
                                3:  0.000000  0.250000  0.400000     0.028571
                                4:  0.000000  0.250000  0.600000     0.028571
                                5:  0.000000  0.250000  0.800000     0.028571
                                6:  0.142857  0.250000  0.000000     0.028571
                                7:  0.142857  0.250000  0.200000     0.028571
                                8:  0.142857  0.250000  0.400000     0.028571
                                9:  0.142857  0.250000  0.600000     0.028571
                               10:  0.142857  0.250000  0.800000     0.028571
                               11:  0.142857  0.750000  0.000000     0.028571
                               12:  0.142857  0.750000  0.200000     0.028571
                               13:  0.142857  0.750000  0.400000     0.028571
                               14:  0.142857  0.750000  0.600000     0.028571
                               15:  0.142857  0.750000  0.800000     0.028571
                               16:  0.285714  0.250000  0.000000     0.028571
                               17:  0.285714  0.250000  0.200000     0.028571
                               18:  0.285714  0.250000  0.400000     0.028571
                               19:  0.285714  0.250000  0.600000     0.028571
                               20:  0.285714  0.250000  0.800000     0.028571
                               21:  0.285714  0.750000  0.000000     0.028571
                               22:  0.285714  0.750000  0.200000     0.028571
                               23:  0.285714  0.750000  0.400000     0.028571
                               24:  0.285714  0.750000  0.600000     0.028571
                               25:  0.285714  0.750000  0.800000     0.028571
                               26:  0.428571  0.250000  0.000000     0.028571
                               27:  0.428571  0.250000  0.200000     0.028571
                               28:  0.428571  0.250000  0.400000     0.028571
                               29:  0.428571  0.250000  0.600000     0.028571
                               30:  0.428571  0.250000  0.800000     0.028571
                               31:  0.428571  0.750000  0.000000     0.028571
                               32:  0.428571  0.750000  0.200000     0.028571
                               33:  0.428571  0.750000  0.400000     0.028571
                               34:  0.428571  0.750000  0.600000     0.028571
                               35:  0.428571  0.750000  0.800000     0.028571

K-points in absolute space:     1:  0.000000  0.012626  0.000000
                                2:  0.000000  0.012626  0.024184
                                3:  0.000000  0.012626  0.048368
                                4:  0.000000  0.012626  0.072551
                                5:  0.000000  0.012626  0.096735
                                6:  0.022814  0.012626  0.000000
                                7:  0.022814  0.012626  0.024184
                                8:  0.022814  0.012626  0.048368
                                9:  0.022814  0.012626  0.072551
                               10:  0.022814  0.012626  0.096735
                               11:  0.022814  0.037878  0.000000
                               12:  0.022814  0.037878  0.024184
                               13:  0.022814  0.037878  0.048368
                               14:  0.022814  0.037878  0.072551
                               15:  0.022814  0.037878  0.096735
                               16:  0.045628  0.012626  0.000000
                               17:  0.045628  0.012626  0.024184
                               18:  0.045628  0.012626  0.048368
                               19:  0.045628  0.012626  0.072551
                               20:  0.045628  0.012626  0.096735
                               21:  0.045628  0.037878  0.000000
                               22:  0.045628  0.037878  0.024184
                               23:  0.045628  0.037878  0.048368
                               24:  0.045628  0.037878  0.072551
                               25:  0.045628  0.037878  0.096735
                               26:  0.068442  0.012626  0.000000
                               27:  0.068442  0.012626  0.024184
                               28:  0.068442  0.012626  0.048368
                               29:  0.068442  0.012626  0.072551
                               30:  0.068442  0.012626  0.096735
                               31:  0.068442  0.037878  0.000000
                               32:  0.068442  0.037878  0.024184
                               33:  0.068442  0.037878  0.048368
                               34:  0.068442  0.037878  0.072551
                               35:  0.068442  0.037878  0.096735

Extra options:
                             Mulliken analysis
Force type                   original

--------------------------------------------------------------------------------

***  Geometry step: 0


Total Energy:                      -13.8757659810 H         -377.5788 eV
Extrapolated to 0K:                -13.8757659810 H         -377.5788 eV
Total Mermin free energy:          -13.8757659810 H         -377.5788 eV
Force related energy:              -13.8757659810 H         -377.5788 eV

Volume:                              0.102537E+04 au^3   0.151945E+03 A^3
Pressure:                            0.102266E-02 au     0.300877E+11 Pa
Maximal force component:             0.456055E-01
Averaged force norm:                 0.641169E-01

--------------------------------------------------------------------------------

***  Geometry step: 1


Total Energy:                      -13.9520243309 H         -379.6539 eV
Extrapolated to 0K:                -13.9520243309 H         -379.6539 eV
Total Mermin free energy:          -13.9520243309 H         -379.6539 eV
Force related energy:              -13.9520243309 H         -379.6539 eV

Volume:                              0.102537E+04 au^3   0.151945E+03 A^3
Pressure:                            0.641983E-03 au     0.188878E+11 Pa
Maximal force component:             0.687813E-02
Averaged force norm:                 0.739616E-02

--------------------------------------------------------------------------------

***  Geometry step: 2


Total Energy:                      -13.9120792906 H         -378.5669 eV
Extrapolated to 0K:                -13.9120792906 H         -378.5669 eV
Total Mermin free energy:          -13.9120792906 H         -378.5669 eV
Force related energy:              -13.9120792906 H         -378.5669 eV

Volume:                              0.102537E+04 au^3   0.151945E+03 A^3
Pressure:                            0.738955E-03 au     0.217408E+11 Pa
Maximal force component:             0.465355E-01
Averaged force norm:                 0.494071E-01

--------------------------------------------------------------------------------

***  Geometry step: 3


Total Energy:                      -13.9531401215 H         -379.6843 eV
Extrapolated to 0K:                -13.9531401215 H         -379.6843 eV
Total Mermin free energy:          -13.9531401215 H         -379.6843 eV
Force related energy:              -13.9531401215 H         -379.6843 eV

Volume:                              0.102537E+04 au^3   0.151945E+03 A^3
Pressure:                            0.610845E-03 au     0.179717E+11 Pa
Maximal force component:             0.279032E-02
Averaged force norm:                 0.329661E-02

--------------------------------------------------------------------------------

***  Geometry step: 4


Total Energy:                      -13.9221806170 H         -378.8418 eV
Extrapolated to 0K:                -13.9221806170 H         -378.8418 eV
Total Mermin free energy:          -13.9221806170 H         -378.8418 eV
Force related energy:              -13.9221806170 H         -378.8418 eV

Volume:                              0.102537E+04 au^3   0.151945E+03 A^3
Pressure:                            0.723390E-03 au     0.212829E+11 Pa
Maximal force component:             0.314425E-01
Averaged force norm:                 0.324595E-01

--------------------------------------------------------------------------------

***  Geometry step: 5


Total Energy:                      -13.9533742345 H         -379.6906 eV
Extrapolated to 0K:                -13.9533742345 H         -379.6906 eV
Total Mermin free energy:          -13.9533742345 H         -379.6906 eV
Force related energy:              -13.9533742345 H         -379.6906 eV

Volume:                              0.102537E+04 au^3   0.151945E+03 A^3
Pressure:                            0.610612E-03 au     0.179648E+11 Pa
Maximal force component:             0.153448E-02
Averaged force norm:                 0.154802E-02

--------------------------------------------------------------------------------

***  Geometry step: 6


Total Energy:                      -13.9530010356 H         -379.6805 eV
Extrapolated to 0K:                -13.9530010356 H         -379.6805 eV
Total Mermin free energy:          -13.9530010356 H         -379.6805 eV
Force related energy:              -13.9530010356 H         -379.6805 eV

Volume:                              0.102537E+04 au^3   0.151945E+03 A^3
Pressure:                            0.592676E-03 au     0.174371E+11 Pa
Maximal force component:             0.365025E-02
Averaged force norm:                 0.367362E-02

--------------------------------------------------------------------------------

***  Geometry step: 7


Total Energy:                      -13.9533781712 H         -379.6907 eV
Extrapolated to 0K:                -13.9533781712 H         -379.6907 eV
Total Mermin free energy:          -13.9533781712 H         -379.6907 eV
Force related energy:              -13.9533781712 H         -379.6907 eV

Volume:                              0.102537E+04 au^3   0.151945E+03 A^3
Pressure:                            0.608791E-03 au     0.179112E+11 Pa
Maximal force component:             0.134948E-02
Averaged force norm:                 0.145595E-02

--------------------------------------------------------------------------------

***  Geometry step: 8


Total Energy:                      -13.9534051391 H         -379.6915 eV
Extrapolated to 0K:                -13.9534051391 H         -379.6915 eV
Total Mermin free energy:          -13.9534051391 H         -379.6915 eV
Force related energy:              -13.9534051391 H         -379.6915 eV

Volume:                              0.102537E+04 au^3   0.151945E+03 A^3
Pressure:                            0.607807E-03 au     0.178823E+11 Pa
Maximal force component:             0.911702E-03
Averaged force norm:                 0.100011E-02

--------------------------------------------------------------------------------

***  Geometry step: 9


Total Energy:                      -13.9534276623 H         -379.6921 eV
Extrapolated to 0K:                -13.9534276623 H         -379.6921 eV
Total Mermin free energy:          -13.9534276623 H         -379.6921 eV
Force related energy:              -13.9534276623 H         -379.6921 eV

Volume:                              0.102537E+04 au^3   0.151945E+03 A^3
Pressure:                            0.606275E-03 au     0.178372E+11 Pa
Maximal force component:             0.211351E-03
Averaged force norm:                 0.283361E-03

--------------------------------------------------------------------------------

***  Geometry step: 10


Total Energy:                      -13.9534094499 H         -379.6916 eV
Extrapolated to 0K:                -13.9534094499 H         -379.6916 eV
Total Mermin free energy:          -13.9534094499 H         -379.6916 eV
Force related energy:              -13.9534094499 H         -379.6916 eV

Volume:                              0.102537E+04 au^3   0.151945E+03 A^3
Pressure:                            0.603951E-03 au     0.177688E+11 Pa
Maximal force component:             0.901061E-03
Averaged force norm:                 0.918750E-03

--------------------------------------------------------------------------------

***  Geometry step: 11


Total Energy:                      -13.9534294270 H         -379.6921 eV
Extrapolated to 0K:                -13.9534294270 H         -379.6921 eV
Total Mermin free energy:          -13.9534294270 H         -379.6921 eV
Force related energy:              -13.9534294270 H         -379.6921 eV

Volume:                              0.102537E+04 au^3   0.151945E+03 A^3
Pressure:                            0.605724E-03 au     0.178210E+11 Pa
Maximal force component:             0.104954E-03
Averaged force norm:                 0.114914E-03

--------------------------------------------------------------------------------

***  Geometry step: 12


Total Energy:                      -13.9533934026 H         -379.6912 eV
Extrapolated to 0K:                -13.9533934026 H         -379.6912 eV
Total Mermin free energy:          -13.9533934026 H         -379.6912 eV
Force related energy:              -13.9533934026 H         -379.6912 eV

Volume:                              0.102537E+04 au^3   0.151945E+03 A^3
Pressure:                            0.611472E-03 au     0.179901E+11 Pa
Maximal force component:             0.105853E-02
Averaged force norm:                 0.114158E-02

--------------------------------------------------------------------------------

***  Geometry step: 13


Total Energy:                      -13.9534297997 H         -379.6921 eV
Extrapolated to 0K:                -13.9534297997 H         -379.6921 eV
Total Mermin free energy:          -13.9534297997 H         -379.6921 eV
Force related energy:              -13.9534297997 H         -379.6921 eV

Volume:                              0.102537E+04 au^3   0.151945E+03 A^3
Pressure:                            0.606238E-03 au     0.178361E+11 Pa
Maximal force component:             0.341299E-05
Averaged force norm:                 0.342955E-05

Geometry converged

--------------------------------------------------------------------------------
DFTB+ running times                          cpu [s]             wall clock [s]
--------------------------------------------------------------------------------
Global initialisation                  +       0.00 (  0.0%)       0.08 (  1.7%)
Pre-SCC initialisation                 +       0.12 (  0.9%)       0.07 (  1.5%)
SCC                                    +      11.06 ( 82.4%)       3.59 ( 76.1%)
Post-SCC processing                    +       2.23 ( 16.6%)       0.93 ( 19.7%)
--------------------------------------------------------------------------------
Missing                                +       0.00 (  0.0%)       0.05 (  1.0%)
Total                                  =      13.42 (100.0%)       4.72 (100.0%)
--------------------------------------------------------------------------------
