   80
Geometry Step: 16
    P      1.95709010     -0.00000000     12.25272490      5.00000000
    P      6.33339010      0.00000000     12.25272490      5.00000000
    P     10.70969010     -0.00000000     12.25272490      5.00000000
    P     15.08599010      0.00000000     12.25272490      5.00000000
    P      0.23105990      1.65680000     12.25272490      5.00000000
    P      4.60735990      1.65680000     12.25272490      5.00000000
    P      8.98365990      1.65680000     12.25272490      5.00000000
    P     13.35995990      1.65680000     12.25272490      5.00000000
    P      1.95709010      3.31360000     12.25272490      5.00000000
    P      6.33339010      3.31360000     12.25272490      5.00000000
    P     10.70969010      3.31360000     12.25272490      5.00000000
    P     15.08599010      3.31360000     12.25272490      5.00000000
    P      0.23105990      4.97040000     12.25272490      5.00000000
    P      4.60735990      4.97040000     12.25272490      5.00000000
    P      8.98365990      4.97040000     12.25272490      5.00000000
    P     13.35995990      4.97040000     12.25272490      5.00000000
    P      1.95709010      6.62720000     12.25272490      5.00000000
    P      6.33339010      6.62720000     12.25272490      5.00000000
    P     10.70969010      6.62720000     12.25272490      5.00000000
    P     15.08599010      6.62720000     12.25272490      5.00000000
    P      0.23105990      8.28400000     12.25272490      5.00000000
    P      4.60735990      8.28400000     12.25272490      5.00000000
    P      8.98365990      8.28400000     12.25272490      5.00000000
    P     13.35995990      8.28400000     12.25272490      5.00000000
    P      1.95709010      9.94080000     12.25272490      5.00000000
    P      6.33339010      9.94080000     12.25272490      5.00000000
    P     10.70969010      9.94080000     12.25272490      5.00000000
    P     15.08599010      9.94080000     12.25272490      5.00000000
    P      0.23105990     11.59760000     12.25272490      5.00000000
    P      4.60735990     11.59760000     12.25272490      5.00000000
    P      8.98365990     11.59760000     12.25272490      5.00000000
    P     13.35995990     11.59760000     12.25272490      5.00000000
    P      1.95709010     13.25440000     12.25272490      5.00000000
    P      6.33339010     13.25440000     12.25272490      5.00000000
    P     10.70969010     13.25440000     12.25272490      5.00000000
    P     15.08599010     13.25440000     12.25272490      5.00000000
    P      0.23105990     14.91120000     12.25272490      5.00000000
    P      4.60735990     14.91120000     12.25272490      5.00000000
    P      8.98365990     14.91120000     12.25272490      5.00000000
    P     13.35995990     14.91120000     12.25272490      5.00000000
    P      2.41920990     -0.00000000      9.87808110      5.00000000
    P      6.79550990      0.00000000      9.87808110      5.00000000
    P     11.17180990     -0.00000000      9.87808110      5.00000000
    P     15.54810990      0.00000000      9.87808110      5.00000000
    P      4.14524010      1.65680000      9.87808110      5.00000000
    P      8.52154010      1.65680000      9.87808110      5.00000000
    P     12.89784010      1.65680000      9.87808110      5.00000000
    P     17.27414010      1.65680000      9.87808110      5.00000000
    P      2.41920990      3.31360000      9.87808110      5.00000000
    P      6.79550990      3.31360000      9.87808110      5.00000000
    P     11.17180990      3.31360000      9.87808110      5.00000000
    P     15.54810990      3.31360000      9.87808110      5.00000000
    P      4.14524010      4.97040000      9.87808110      5.00000000
    P      8.52154010      4.97040000      9.87808110      5.00000000
    P     12.89784010      4.97040000      9.87808110      5.00000000
    P     17.27414010      4.97040000      9.87808110      5.00000000
    P      2.41920990      6.62720000      9.87808110      5.00000000
    P      6.79550990      6.62720000      9.87808110      5.00000000
    P     11.17180990      6.62720000      9.87808110      5.00000000
    P     15.54810990      6.62720000      9.87808110      5.00000000
    P      4.14524010      8.28400000      9.87808110      5.00000000
    P      8.52154010      8.28400000      9.87808110      5.00000000
    P     12.89784010      8.28400000      9.87808110      5.00000000
    P     17.27414010      8.28400000      9.87808110      5.00000000
    P      2.41920990      9.94080000      9.87808110      5.00000000
    P      6.79550990      9.94080000      9.87808110      5.00000000
    P     11.17180990      9.94080000      9.87808110      5.00000000
    P     15.54810990      9.94080000      9.87808110      5.00000000
    P      4.14524010     11.59760000      9.87808110      5.00000000
    P      8.52154010     11.59760000      9.87808110      5.00000000
    P     12.89784010     11.59760000      9.87808110      5.00000000
    P     17.27414010     11.59760000      9.87808110      5.00000000
    P      2.41920990     13.25440000      9.87808110      5.00000000
    P      6.79550990     13.25440000      9.87808110      5.00000000
    P     11.17180990     13.25440000      9.87808110      5.00000000
    P     15.54810990     13.25440000      9.87808110      5.00000000
    P      4.14524010     14.91120000      9.87808110      5.00000000
    P      8.52154010     14.91120000      9.87808110      5.00000000
    P     12.89784010     14.91120000      9.87808110      5.00000000
    P     17.27414010     14.91120000      9.87808110      5.00000000
