   80
Geometry Step: 60
    P      2.41243183     -0.90110777     12.19813512      4.99981985
    P      6.50957083     -0.90063283     12.22663124      4.99992842
    P     10.60520948     -0.90092803     12.25324633      5.00013255
    P     14.70202184     -0.90095395     12.28149661      4.99985099
    P      0.73820829      0.95534265     12.18592726      4.99992533
    P      4.83542822      0.95560029     12.21574594      5.00004161
    P      8.93194450      0.95663306     12.24240652      4.99992884
    P     13.02794408      0.95559419     12.26924224      4.99999442
    P      2.41260855      2.81210440     12.19710595      4.99983003
    P      6.50924640      2.81362151     12.22684396      5.00002271
    P     10.60574690      2.81314814     12.25320656      5.00008171
    P     14.70217560      2.81243133     12.28231034      5.00004970
    P      0.73849245      4.66929362     12.18562915      5.00004873
    P      4.83465205      4.66984753     12.21583660      5.00019662
    P      8.93200283      4.67061019     12.24205896      4.99988749
    P     13.02833624      4.66989055     12.26924683      5.00017933
    P      2.41228422      6.52690999     12.19559258      4.99988552
    P      6.50896020      6.52731979     12.22836584      5.00003616
    P     10.60604517      6.52707688     12.25165226      4.99997637
    P     14.70274562      6.52680918     12.28394127      5.00011639
    P      0.73838745      8.38451814     12.18561129      4.99996246
    P      4.83465529      8.38420789     12.21562222      5.00020206
    P      8.93207271      8.38383488     12.24208040      4.99983836
    P     13.02829996      8.38423966     12.26960883      5.00027865
    P      2.41236039     10.24174847     12.19626143      4.99988406
    P      6.50907763     10.24067766     12.22728024      4.99999100
    P     10.60582750     10.24099898     12.25254306      5.00004298
    P     14.70225281     10.24174197     12.28311709      5.00012882
    P      0.73838269     12.09889783     12.18583740      5.00002579
    P      4.83524089     12.09846330     12.21564303      5.00013342
    P      8.93189249     12.09741640     12.24244444      4.99995099
    P     13.02788031     12.09859953     12.26932890      5.00005366
    P      2.41249880     13.95588818     12.19785876      4.99980588
    P      6.50944893     13.95492647     12.22654872      4.99993575
    P     10.60538533     13.95538241     12.25335887      5.00011160
    P     14.70198386     13.95559899     12.28169107      4.99989462
    P      0.73832305     15.81205803     12.18625777      4.99990027
    P      4.83567669     15.81220512     12.21581951      5.00002967
    P      8.93198060     15.81180642     12.24246703      4.99984742
    P     13.02815888     15.81217898     12.26890834      5.00004976
    P      2.80317816     -0.90095395      9.84930939      4.99985099
    P      6.89999052     -0.90092803      9.87755967      5.00013255
    P     10.99562917     -0.90063283      9.90417476      4.99992842
    P     15.09276817     -0.90110777      9.93267088      4.99981985
    P      4.47725592      0.95559419      9.86156376      4.99999442
    P      8.57325550      0.95663306      9.88839948      4.99992884
    P     12.66977178      0.95560029      9.91506006      5.00004161
    P     16.76699171      0.95534265      9.94487874      4.99992533
    P      2.80302440      2.81243133      9.84849566      5.00004970
    P      6.89945310      2.81314814      9.87759944      5.00008171
    P     10.99595360      2.81362151      9.90396204      5.00002271
    P     15.09259145      2.81210440      9.93370005      4.99983003
    P      4.47686376      4.66989055      9.86155917      5.00017933
    P      8.57319717      4.67061019      9.88874704      4.99988749
    P     12.67054795      4.66984753      9.91496940      5.00019662
    P     16.76670755      4.66929362      9.94517685      5.00004873
    P      2.80245438      6.52680918      9.84686473      5.00011639
    P      6.89915483      6.52707688      9.87915374      4.99997637
    P     10.99623980      6.52731979      9.90244016      5.00003616
    P     15.09291578      6.52690999      9.93521342      4.99988552
    P      4.47690004      8.38423966      9.86119717      5.00027865
    P      8.57312729      8.38383488      9.88872560      4.99983836
    P     12.67054471      8.38420789      9.91518378      5.00020206
    P     16.76681255      8.38451814      9.94519471      4.99996246
    P      2.80294719     10.24174197      9.84768891      5.00012882
    P      6.89937250     10.24099898      9.87826294      5.00004298
    P     10.99612237     10.24067766      9.90352576      4.99999100
    P     15.09283961     10.24174847      9.93454457      4.99988406
    P      4.47731969     12.09859953      9.86147710      5.00005366
    P      8.57330751     12.09741640      9.88836156      4.99995099
    P     12.66995911     12.09846330      9.91516297      5.00013342
    P     16.76681731     12.09889783      9.94496860      5.00002579
    P      2.80321614     13.95559899      9.84911493      4.99989462
    P      6.89981467     13.95538241      9.87744713      5.00011160
    P     10.99575107     13.95492647      9.90425728      4.99993575
    P     15.09270120     13.95588818      9.93294724      4.99980588
    P      4.47704112     15.81217898      9.86189766      5.00004976
    P      8.57321940     15.81180642      9.88833897      4.99984742
    P     12.66952331     15.81220512      9.91498649      5.00002967
    P     16.76687695     15.81205803      9.94454823      4.99990027
